UNK
    14
  -1.3440000  -1.3060000   0.1900000  -1.1990000  -0.1950000  -0.6410000
  -0.1380000   0.7070000  -0.0840000  -0.4650000   1.1460000   1.1840000
   1.2370000   0.0760000  -0.1350000   1.3280000  -1.0310000   0.7140000
  -2.0740000  -1.1600000   0.8180000  -2.1350000   0.4110000  -0.7020000
  -0.9680000  -0.4990000  -1.6680000  -0.0720000   1.6230000  -0.7290000
   0.3630000   1.3130000   1.7300000   2.0020000   0.7980000   0.2090000
   1.4740000  -0.2340000  -1.1710000   1.9900000  -1.6510000   0.2860000
