%VERSION  VERSION_STAMP = V0001.000  DATE = 01/01/70  00:00:00
%FLAG TITLE                                                                     
%FORMAT(20a4)                                                                   
UNK                                                                             
%FLAG POINTERS                                                                  
%FORMAT(10I8)                                                                   
      14       4       8       5      16       5      29       6       0       0
      63       1       5       5       6       4       6       8       4       0
       0       0       0       0       0       0       0       0      14       0
       0
%FLAG ATOM_NAME                                                                 
%FORMAT(20a4)                                                                   
O1x C1x C2x O2x C3x O3x H1x H2x H3x H4x H5x H6x H7x H8x 
%FLAG CHARGE                                                                    
%FORMAT(5E16.8)                                                                 
 -1.11028474E+01  1.79307432E+00  1.14982713E+00 -1.09661801E+01  1.79307432E+00
 -1.11028474E+01  7.58958795E+00  1.03775999E+00  1.03775999E+00  1.48876191E+00
  7.61692140E+00  1.03775999E+00  1.03775999E+00  7.58958795E+00
%FLAG ATOMIC_NUMBER                                                             
%FORMAT(10I8)                                                                   
       8       6       6       8       6       8       1       1       1       1
       1       1       1       1
%FLAG MASS                                                                      
%FORMAT(5E16.8)                                                                 
  1.60000000E+01  1.20100000E+01  1.20100000E+01  1.60000000E+01  1.20100000E+01
  1.60000000E+01  1.00800000E+00  1.00800000E+00  1.00800000E+00  1.00800000E+00
  1.00800000E+00  1.00800000E+00  1.00800000E+00  1.00800000E+00
%FLAG ATOM_TYPE_INDEX                                                           
%FORMAT(10I8)                                                                   
       1       2       2       1       2       1       3       4       4       4
       3       4       4       3
%FLAG NUMBER_EXCLUDED_ATOMS                                                     
%FORMAT(10I8)                                                                   
       8      11      11       8       8       4       2       2       1       3
       1       2       1       1
%FLAG NONBONDED_PARM_INDEX                                                      
%FORMAT(10I8)                                                                   
       1       2       4       7       2       3       5       8       4       5
       6       9       7       8       9      10
%FLAG RESIDUE_LABEL                                                             
%FORMAT(20a4)                                                                   
UNK 
%FLAG RESIDUE_POINTER                                                           
%FORMAT(10I8)                                                                   
       1
%FLAG BOND_FORCE_CONSTANT                                                       
%FORMAT(5E16.8)                                                                 
  2.85150000E+02  5.35510000E+02  2.28890000E+02  3.44220000E+02
%FLAG BOND_EQUIL_VALUE                                                          
%FORMAT(5E16.8)                                                                 
  1.42420000E+00  9.72500000E-01  1.53540000E+00  1.09690000E+00
%FLAG ANGLE_FORCE_CONSTANT                                                      
%FORMAT(5E16.8)                                                                 
  7.67900000E+01  5.62900000E+01  6.51300000E+01  5.98700000E+01  4.32800000E+01
  3.56400000E+01
%FLAG ANGLE_EQUIL_VALUE                                                         
%FORMAT(5E16.8)                                                                 
  1.91392888E+00  1.92649525E+00  1.87430989E+00  1.96576518E+00  1.91270715E+00
  1.89455572E+00
%FLAG DIHEDRAL_FORCE_CONSTANT                                                   
%FORMAT(5E16.8)                                                                 
  1.00000000E+00  1.44000000E+00  1.80000000E-01  2.50000000E-01  0.00000000E+00
  6.00000000E-02  1.55555556E-01  1.23000000E-01
%FLAG DIHEDRAL_PERIODICITY                                                      
%FORMAT(5E16.8)                                                                 
  1.00000000E+00  3.00000000E+00  3.00000000E+00  1.00000000E+00  3.00000000E+00
  3.00000000E+00  3.00000000E+00  3.00000000E+00
%FLAG DIHEDRAL_PHASE                                                            
%FORMAT(5E16.8)                                                                 
  0.00000000E+00  0.00000000E+00  0.00000000E+00  0.00000000E+00  0.00000000E+00
  0.00000000E+00  0.00000000E+00  0.00000000E+00
%FLAG SCEE_SCALE_FACTOR                                                         
%FORMAT(5E16.8)                                                                 
  1.20000000E+00  1.20000000E+00  1.20000000E+00  1.20000000E+00  1.20000000E+00
  1.20000000E+00  1.20000000E+00  1.20000000E+00
%FLAG SCNB_SCALE_FACTOR                                                         
%FORMAT(5E16.8)                                                                 
  2.00000000E+00  2.00000000E+00  2.00000000E+00  2.00000000E+00  2.00000000E+00
  2.00000000E+00  2.00000000E+00  2.00000000E+00
%FLAG SOLTY                                                                     
%FORMAT(5E16.8)                                                                 
  0.00000000E+00  0.00000000E+00  0.00000000E+00  0.00000000E+00
%FLAG LENNARD_JONES_ACOEF                                                       
%FORMAT(5E16.8)                                                                 
  5.03152404E+05  7.18991463E+05  1.02073671E+06  1.74176419E+02  3.03553352E+02
  1.10360882E-05  4.69084694E+04  6.97998263E+04  4.36660257E+00  3.39005767E+03
%FLAG LENNARD_JONES_BCOEF                                                       
%FORMAT(5E16.8)                                                                 
  4.32634597E+02  5.36620538E+02  6.63431737E+02  3.81654050E+00  5.22789272E+00
  4.55498033E-04  9.08431526E+01  1.14981426E+02  4.15568027E-01  1.67944276E+01
%FLAG BONDS_INC_HYDROGEN                                                        
%FORMAT(10I8)                                                                   
       0      18       2       3      21       4       3      24       4       6
      27       4       9      30       2      12      33       4      12      36
       4      15      39       2
%FLAG BONDS_WITHOUT_HYDROGEN                                                    
%FORMAT(10I8)                                                                   
       0       3       1       3       6       3       6       9       1       6
      12       3      12      15       1
%FLAG ANGLES_INC_HYDROGEN                                                       
%FORMAT(10I8)                                                                   
       0       3      21       2       0       3      24       2       3       0
      18       3       3       6      27       5       6       3      21       5
       6       3      24       5       6       9      30       3       6      12
      33       5       6      12      36       5       9       6      27       2
      12       6      27       5      12      15      39       3      15      12
      33       2      15      12      36       2      21       3      24       6
      33      12      36       6
%FLAG ANGLES_WITHOUT_HYDROGEN                                                   
%FORMAT(10I8)                                                                   
       0       3       6       1       3       6       9       1       3       6
      12       4       6      12      15       1       9       6      12       1
%FLAG DIHEDRALS_INC_HYDROGEN                                                    
%FORMAT(10I8)                                                                   
       0       3       6      27       4       0       3      -6      27       5
       3       6       9      30       6       3       6      12      33       7
       3       6      12      36       7      18       0       3       6       6
       6      12      15      39       6       9       6       3      21       4
       9       6      -3      21       5       9       6       3      24       4
       9       6      -3      24       5       9       6      12      33       4
       9       6     -12      33       5       9       6      12      36       4
       9       6     -12      36       5      12       6       3      21       7
      12       6       3      24       7      12       6       9      30       6
      15      12       6      27       4      15      12      -6      27       5
      18       0       3      21       8      18       0       3      24       8
      21       3       6      27       7      24       3       6      27       7
      27       6       9      30       8      27       6      12      33       7
      27       6      12      36       7      33      12      15      39       8
      36      12      15      39       8
%FLAG DIHEDRALS_WITHOUT_HYDROGEN                                                
%FORMAT(10I8)                                                                   
       0       3       6       9       1       0       3      -6       9       2
       0       3       6      12       3       3       6      12      15       3
       9       6      12      15       1       9       6     -12      15       2
%FLAG EXCLUDED_ATOMS_LIST                                                       
%FORMAT(10I8)                                                                   
       2       3       4       5       7       8       9      10       3       4
       5       6       7       8       9      10      11      12      13       4
       5       6       7       8       9      10      11      12      13      14
       5       6       8       9      10      11      12      13       6       8
       9      10      11      12      13      14      10      12      13      14
       8       9       9      10      10      11      12      13       0      13
      14      14       0
%FLAG HBOND_ACOEF                                                               
%FORMAT(5E16.8)                                                                 

%FLAG HBOND_BCOEF                                                               
%FORMAT(5E16.8)                                                                 

%FLAG HBCUT                                                                     
%FORMAT(5E16.8)                                                                 

%FLAG AMBER_ATOM_TYPE                                                           
%FORMAT(20a4)                                                                   
oh  c3  c3  oh  c3  oh  ho  h1  h1  h1  ho  h1  h1  ho  
%FLAG TREE_CHAIN_CLASSIFICATION                                                 
%FORMAT(20a4)                                                                   
BLA BLA BLA BLA BLA BLA BLA BLA BLA BLA BLA BLA BLA BLA 
%FLAG JOIN_ARRAY                                                                
%FORMAT(10I8)                                                                   
       0       0       0       0       0       0       0       0       0       0
       0       0       0       0
%FLAG IROTAT                                                                    
%FORMAT(10I8)                                                                   
       0       0       0       0       0       0       0       0       0       0
       0       0       0       0
%FLAG RADIUS_SET                                                                
%FORMAT(1a80)                                                                   
H(N)-modified Bondi radii (mbondi2)                                             
%FLAG RADII                                                                     
%FORMAT(5E16.8)                                                                 
  1.50000000E+00  1.70000000E+00  1.70000000E+00  1.50000000E+00  1.70000000E+00
  1.50000000E+00  1.20000000E+00  1.20000000E+00  1.20000000E+00  1.20000000E+00
  1.20000000E+00  1.20000000E+00  1.20000000E+00  1.20000000E+00
%FLAG SCREEN                                                                    
%FORMAT(5E16.8)                                                                 
  8.50000000E-01  7.20000000E-01  7.20000000E-01  8.50000000E-01  7.20000000E-01
  8.50000000E-01  8.50000000E-01  8.50000000E-01  8.50000000E-01  8.50000000E-01
  8.50000000E-01  8.50000000E-01  8.50000000E-01  8.50000000E-01
%FLAG IPOL                                                                      
%FORMAT(1I8)                                                                    
       0
