%VERSION  VERSION_STAMP = V0001.000  DATE = 01/01/70  00:00:00
%FLAG TITLE                                                                     
%FORMAT(20a4)                                                                   
UNK                                                                             
%FLAG POINTERS                                                                  
%FORMAT(10I8)                                                                   
      18       6      11       6      24       5      36       4       0       0
      83       1       6       5       4       6       9       9       6       0
       0       0       0       0       0       0       0       0      18       0
       0
%FLAG ATOM_NAME                                                                 
%FORMAT(20a4)                                                                   
O1x C1x C2x N1x C3x C4x O2x H1x H2x H3x H4x H5x H6x H7x H8x H9x H10xH11x
%FLAG CHARGE                                                                    
%FORMAT(5E16.8)                                                                 
 -1.08659575E+01  2.04818652E+00  2.17392039E+00 -1.50734866E+01  2.17392039E+00
  2.04818652E+00 -1.08659575E+01  7.38003150E+00  8.23647960E-01  8.23647960E-01
  9.10203885E-01  9.10203885E-01  6.66571734E+00  9.10203885E-01  9.10203885E-01
  8.23647960E-01  8.23647960E-01  7.38003150E+00
%FLAG ATOMIC_NUMBER                                                             
%FORMAT(10I8)                                                                   
       8       6       6       7       6       6       8       1       1       1
       1       1       1       1       1       1       1       1
%FLAG MASS                                                                      
%FORMAT(5E16.8)                                                                 
  1.60000000E+01  1.20100000E+01  1.20100000E+01  1.40100000E+01  1.20100000E+01
  1.20100000E+01  1.60000000E+01  1.00800000E+00  1.00800000E+00  1.00800000E+00
  1.00800000E+00  1.00800000E+00  1.00800000E+00  1.00800000E+00  1.00800000E+00
  1.00800000E+00  1.00800000E+00  1.00800000E+00
%FLAG ATOM_TYPE_INDEX                                                           
%FORMAT(10I8)                                                                   
       1       2       2       3       2       2       1       4       5       5
       5       5       6       5       5       5       5       4
%FLAG NUMBER_EXCLUDED_ATOMS                                                     
%FORMAT(10I8)                                                                   
       8       9      11      12      10       7       5       2       3       2
       2       1       2       3       2       2       1       1
%FLAG NONBONDED_PARM_INDEX                                                      
%FORMAT(10I8)                                                                   
       1       2       4       7      11      16       2       3       5       8
      12      17       4       5       6       9      13      18       7       8
       9      10      14      19      11      12      13      14      15      20
      16      17      18      19      20      21
%FLAG RESIDUE_LABEL                                                             
%FORMAT(20a4)                                                                   
UNK 
%FLAG RESIDUE_POINTER                                                           
%FORMAT(10I8)                                                                   
       1
%FLAG BOND_FORCE_CONSTANT                                                       
%FORMAT(5E16.8)                                                                 
  2.85150000E+02  5.35510000E+02  2.28890000E+02  3.44220000E+02  2.55520000E+02
  4.60050000E+02
%FLAG BOND_EQUIL_VALUE                                                          
%FORMAT(5E16.8)                                                                 
  1.42420000E+00  9.72500000E-01  1.53540000E+00  1.09690000E+00  1.46300000E+00
  1.01950000E+00
%FLAG ANGLE_FORCE_CONSTANT                                                      
%FORMAT(5E16.8)                                                                 
  7.67900000E+01  5.62900000E+01  6.51300000E+01  6.57200000E+01  4.32800000E+01
  7.69900000E+01  5.64400000E+01  4.77900000E+01  3.56400000E+01
%FLAG ANGLE_EQUIL_VALUE                                                         
%FORMAT(5E16.8)                                                                 
  1.91392888E+00  1.92649525E+00  1.87430989E+00  1.92370273E+00  1.91270715E+00
  1.99979911E+00  1.89996624E+00  1.92492446E+00  1.89455572E+00
%FLAG DIHEDRAL_FORCE_CONSTANT                                                   
%FORMAT(5E16.8)                                                                 
  1.55555556E-01  2.50000000E-01  0.00000000E+00  1.40000000E-01  2.17000000E-01
  6.00000000E-02  2.15000000E-01  1.23000000E-01  3.00000000E-01
%FLAG DIHEDRAL_PERIODICITY                                                      
%FORMAT(5E16.8)                                                                 
  3.00000000E+00  1.00000000E+00  3.00000000E+00  3.00000000E+00  3.00000000E+00
  3.00000000E+00  3.00000000E+00  3.00000000E+00  3.00000000E+00
%FLAG DIHEDRAL_PHASE                                                            
%FORMAT(5E16.8)                                                                 
  0.00000000E+00  0.00000000E+00  0.00000000E+00  0.00000000E+00  0.00000000E+00
  0.00000000E+00  0.00000000E+00  0.00000000E+00  0.00000000E+00
%FLAG SCEE_SCALE_FACTOR                                                         
%FORMAT(5E16.8)                                                                 
  1.20000000E+00  1.20000000E+00  1.20000000E+00  1.20000000E+00  1.20000000E+00
  1.20000000E+00  1.20000000E+00  1.20000000E+00  1.20000000E+00
%FLAG SCNB_SCALE_FACTOR                                                         
%FORMAT(5E16.8)                                                                 
  2.00000000E+00  2.00000000E+00  2.00000000E+00  2.00000000E+00  2.00000000E+00
  2.00000000E+00  2.00000000E+00  2.00000000E+00  2.00000000E+00
%FLAG SOLTY                                                                     
%FORMAT(5E16.8)                                                                 
  0.00000000E+00  0.00000000E+00  0.00000000E+00  0.00000000E+00  0.00000000E+00
  0.00000000E+00
%FLAG LENNARD_JONES_ACOEF                                                       
%FORMAT(5E16.8)                                                                 
  5.03152404E+05  7.18991463E+05  1.02073671E+06  6.09286822E+05  8.61147463E+05
  7.24302894E+05  1.74176419E+02  3.03553352E+02  2.93996564E+02  1.10360882E-05
  4.69084694E+04  6.97998263E+04  6.08009173E+04  4.36660257E+00  3.39005767E+03
  1.36475542E+03  2.23577481E+03  2.07791361E+03  2.61760843E-03  5.24570081E+01
  1.34728399E-01
%FLAG LENNARD_JONES_BCOEF                                                       
%FORMAT(5E16.8)                                                                 
  4.32634597E+02  5.36620538E+02  6.63431737E+02  4.12077831E+02  5.08324538E+02
  3.88888730E+02  3.81654050E+00  5.22789272E+00  4.29183694E+00  4.55498033E-04
  9.08431526E+01  1.14981426E+02  8.95196800E+01  4.15568027E-01  1.67944276E+01
  1.29026271E+01  1.71355763E+01  1.37803855E+01  8.47240681E-03  1.73959275E+00
  7.34107347E-02
%FLAG BONDS_INC_HYDROGEN                                                        
%FORMAT(10I8)                                                                   
       0      21       2       3      24       4       3      27       4       6
      30       4       6      33       4       9      36       6      12      39
       4      12      42       4      15      45       4      15      48       4
      18      51       2
%FLAG BONDS_WITHOUT_HYDROGEN                                                    
%FORMAT(10I8)                                                                   
       0       3       1       3       6       3       6       9       5       9
      12       5      12      15       3      15      18       1
%FLAG ANGLES_INC_HYDROGEN                                                       
%FORMAT(10I8)                                                                   
       0       3      24       2       0       3      27       2       3       0
      21       3       3       6      30       5       3       6      33       5
       6       3      24       5       6       3      27       5       6       9
      36       7       9       6      30       8       9       6      33       8
       9      12      39       8       9      12      42       8      12       9
      36       7      12      15      45       5      12      15      48       5
      15      12      39       5      15      12      42       5      15      18
      51       3      18      15      45       2      18      15      48       2
      24       3      27       9      30       6      33       9      39      12
      42       9      45      15      48       9
%FLAG ANGLES_WITHOUT_HYDROGEN                                                   
%FORMAT(10I8)                                                                   
       0       3       6       1       3       6       9       4       6       9
      12       6       9      12      15       4      12      15      18       1
%FLAG DIHEDRALS_INC_HYDROGEN                                                    
%FORMAT(10I8)                                                                   
       0       3       6      30       2       0       3      -6      30       3
       0       3       6      33       2       0       3      -6      33       3
       3       6       9      36       5      21       0       3       6       6
       6       9      12      39       7       6       9      12      42       7
       9       6       3      24       1       9       6       3      27       1
       9      12      15      45       1       9      12      15      48       1
      12       9       6      30       7      12       9       6      33       7
      12      15      18      51       6      15      12       9      36       5
      18      15      12      39       2      18      15     -12      39       3
      18      15      12      42       2      18      15     -12      42       3
      21       0       3      24       8      21       0       3      27       8
      24       3       6      30       1      24       3       6      33       1
      27       3       6      30       1      27       3       6      33       1
      30       6       9      36       9      33       6       9      36       9
      36       9      12      39       9      36       9      12      42       9
      39      12      15      45       1      39      12      15      48       1
      42      12      15      45       1      42      12      15      48       1
      45      15      18      51       8      48      15      18      51       8
%FLAG DIHEDRALS_WITHOUT_HYDROGEN                                                
%FORMAT(10I8)                                                                   
       0       3       6       9       1       3       6       9      12       4
       6       9      12      15       4       9      12      15      18       1
%FLAG EXCLUDED_ATOMS_LIST                                                       
%FORMAT(10I8)                                                                   
       2       3       4       8       9      10      11      12       3       4
       5       8       9      10      11      12      13       4       5       6
       8       9      10      11      12      13      14      15       5       6
       7       9      10      11      12      13      14      15      16      17
       6       7      11      12      13      14      15      16      17      18
       7      13      14      15      16      17      18      14      15      16
      17      18       9      10      10      11      12      11      12      12
      13      13      14      15      15      16      17      16      17      17
      18      18       0
%FLAG HBOND_ACOEF                                                               
%FORMAT(5E16.8)                                                                 

%FLAG HBOND_BCOEF                                                               
%FORMAT(5E16.8)                                                                 

%FLAG HBCUT                                                                     
%FORMAT(5E16.8)                                                                 

%FLAG AMBER_ATOM_TYPE                                                           
%FORMAT(20a4)                                                                   
oh  c3  c3  n7  c3  c3  oh  ho  h1  h1  h1  h1  hn  h1  h1  h1  h1  ho  
%FLAG TREE_CHAIN_CLASSIFICATION                                                 
%FORMAT(20a4)                                                                   
BLA BLA BLA BLA BLA BLA BLA BLA BLA BLA BLA BLA BLA BLA BLA BLA BLA BLA 
%FLAG JOIN_ARRAY                                                                
%FORMAT(10I8)                                                                   
       0       0       0       0       0       0       0       0       0       0
       0       0       0       0       0       0       0       0
%FLAG IROTAT                                                                    
%FORMAT(10I8)                                                                   
       0       0       0       0       0       0       0       0       0       0
       0       0       0       0       0       0       0       0
%FLAG RADIUS_SET                                                                
%FORMAT(1a80)                                                                   
H(N)-modified Bondi radii (mbondi2)                                             
%FLAG RADII                                                                     
%FORMAT(5E16.8)                                                                 
  1.50000000E+00  1.70000000E+00  1.70000000E+00  1.55000000E+00  1.70000000E+00
  1.70000000E+00  1.50000000E+00  1.20000000E+00  1.20000000E+00  1.20000000E+00
  1.20000000E+00  1.20000000E+00  1.30000000E+00  1.20000000E+00  1.20000000E+00
  1.20000000E+00  1.20000000E+00  1.20000000E+00
%FLAG SCREEN                                                                    
%FORMAT(5E16.8)                                                                 
  8.50000000E-01  7.20000000E-01  7.20000000E-01  7.90000000E-01  7.20000000E-01
  7.20000000E-01  8.50000000E-01  8.50000000E-01  8.50000000E-01  8.50000000E-01
  8.50000000E-01  8.50000000E-01  8.50000000E-01  8.50000000E-01  8.50000000E-01
  8.50000000E-01  8.50000000E-01  8.50000000E-01
%FLAG IPOL                                                                      
%FORMAT(1I8)                                                                    
       0
