UNK
    18
  -3.0200000   1.0620000   0.3620000  -2.0570000   0.0340000   0.2930000
  -0.9540000   0.4120000  -0.6940000   0.0590000  -0.5320000  -0.8470000
   0.9790000  -0.8610000   0.1290000   2.0010000   0.1270000   0.5460000
   2.8140000   0.5060000  -0.5230000  -3.4130000   1.1300000  -0.5590000
  -2.5210000  -0.9440000   0.0450000  -1.6760000  -0.0860000   1.3290000
  -1.4790000   0.4760000  -1.6910000  -0.6800000   1.4360000  -0.4600000
  -0.0740000  -1.2750000  -1.5360000   1.5680000  -1.7510000  -0.2390000
   0.4650000  -1.2690000   1.0340000   1.6370000   1.0690000   0.9810000
   2.6770000  -0.3320000   1.2990000   3.6740000   0.7990000  -0.1280000
